   51
assoc268.out    B3LYP-D3 energy of the complex (kJ/mol) =    -151.13 
N       5.08298694    -2.47874042     3.50939350
C       5.83074391    -1.23684874     3.87725893
C       4.99316138    -0.04797729     3.40234330
O       3.83230476     0.09765765     3.75381531
H       4.07584363    -2.35190048     3.72777960
H       5.45852911    -3.28012987     4.04052633
H       5.98897029    -1.11790018     4.98108579
H       6.83619662    -1.28500022     3.36733734
N       5.64839343     0.88450802     2.60329854
C       4.89473105     2.02424894     2.05444273
C       4.73790742     1.91301112     0.54607523
O       5.56557209     1.54499644    -0.26682891
O       3.53152316     2.36531396     0.15278085
H       6.52590415     0.64093307     2.12348461
H       3.86611410     2.06780508     2.52920237
H       5.44700043     2.97671660     2.28684179
H       3.27599422     2.10095543    -0.83163040
N       3.89887454     0.90849924    -3.90668312
C       5.28222880     0.92746465    -3.33395826
C       5.60386817    -0.48581284    -2.84248901
O       5.13716312    -1.47972126    -3.37500026
H       3.76629547     0.03776339    -4.46852254
H       3.74098512     1.74904225    -4.48712287
H       6.06569333     1.22715070    -4.08055264
H       5.29060248     1.65990564    -2.47252979
N       6.55167045    -0.55772335    -1.82034692
C       6.81713416    -1.86279364    -1.18718048
C       6.58080222    -1.78340401     0.31175538
O       7.12248984    -1.04099499     1.10938579
O       5.67435813    -2.69655641     0.71118755
H       6.76690948     0.27045880    -1.24600549
H       6.15019505    -2.65504453    -1.65018278
H       7.89674463    -2.13456632    -1.35774615
H       5.49706800    -2.69084481     1.74782838
N       3.06643213    -1.07744357     0.81022267
C       1.80244704    -1.09013446     1.59967774
C       0.73531034    -0.44660892     0.70674344
O      -0.24320184    -1.04629937     0.29419656
H       3.05460948    -1.82119481     0.09565584
H       3.86757172    -1.18960008     1.43149371
H       1.44434558    -2.11823375     1.87097477
H       1.94423204    -0.48437553     2.54337184
N       0.92689297     0.92094007     0.44059387
C       0.24087888     1.51775668    -0.71792297
C       1.05178235     1.42898679    -2.00254399
O       0.65698440     1.62593024    -3.13255044
O       2.35454345     1.12353752    -1.78881620
H       1.85357969     1.31640996     0.65063848
H      -0.74490478     0.98006485    -0.87523415
H       0.03345811     2.60106586    -0.49874728
H       2.92921072     0.90679042    -2.75400519
   51
assoc191.out    B3LYP-D3 energy of the complex (kJ/mol) =    -125.83 
N       8.44301658     0.55476911     2.61077656
C       7.09732443     0.65814849     3.25874643
C       6.31350217    -0.62352478     2.95780766
O       6.71892612    -1.71958909     3.30737062
H       8.78708689    -0.42360227     2.68293322
H       9.10198731     1.19728547     3.07948491
H       7.15155180     0.75302827     4.37538806
H       6.58919183     1.57342479     2.83220638
N       5.07284438    -0.43990800     2.35276977
C       4.23882436    -1.61199741     2.03076835
C       3.78861414    -1.57491948     0.58904175
O       3.74483368    -0.59618522    -0.14069873
O       3.35792572    -2.78147459     0.17736862
H       4.87005942     0.42458888     1.83683518
H       4.79448236    -2.57147712     2.25417532
H       3.29430573    -1.58099142     2.66919908
H       2.87518924    -2.75515351    -0.73255676
N       2.50323539    -0.03641387    -4.26104632
C       3.07904283     0.42492501    -2.97413646
C       4.50067983     0.97905213    -3.07108656
O       5.12944503     1.09983357    -4.10719920
H       3.06783944    -0.81891453    -4.63167593
H       2.50908152     0.74030670    -4.94243850
H       2.40648295     1.22258966    -2.55107670
H       3.09132372    -0.45274394    -2.25489720
N       4.99132168     1.38415433    -1.83229405
C       6.38445706     1.83166299    -1.63803277
C       6.72552967     1.62772200    -0.17258498
O       5.93731907     1.78310696     0.75594289
O       7.98112245     1.24146192     0.01595035
H       4.48535920     1.13675282    -0.97588360
H       7.08870674     1.25191574    -2.30093480
H       6.46807986     2.92687071    -1.88750180
H       8.21403437     0.99296104     1.07075269
N       2.48026949     2.03358601     0.77610455
C       1.69868907     1.42773079     1.88797614
C       1.12881871     0.08816106     1.41964085
O       1.29159161    -0.94345166     2.05785419
H       3.29610127     1.44448241     0.56168204
H       2.78470148     2.98138559     1.03480850
H       2.30191770     1.22405922     2.81444253
H       0.84813596     2.11373988     2.14955747
N       0.37264166     0.10718553     0.25055422
C      -0.09388827    -1.15104675    -0.35756176
C       0.65819601    -1.39878877    -1.65982081
O       1.57094134    -2.18030487    -1.85690665
O       0.19662058    -0.60460792    -2.64520193
H       0.33997962     0.94374264    -0.33721040
H       0.10110070    -2.01153311     0.35247141
H      -1.19564433    -1.07382271    -0.57257429
H       0.81324925    -0.60340534    -3.49338279
   51
assoc77.out     B3LYP-D3 energy of the complex (kJ/mol) =     -97.92 
N       4.85035484     2.25308958     3.10209563
C       3.90977782     1.10978908     2.87358063
C       4.73570650    -0.13368732     2.55310496
O       5.89643559    -0.25773857     2.91624929
H       5.68519768     1.91074668     3.62563495
H       4.36982412     3.00034085     3.62500130
H       3.24997130     0.88544556     3.75273328
H       3.25801376     1.37571074     1.97960935
N       4.07159576    -1.12008744     1.83804067
C       4.78237407    -2.32247818     1.38287102
C       5.26741010    -2.14592187    -0.05033588
O       4.62300339    -1.68256749    -1.00184577
O       6.50284180    -2.56534425    -0.23603900
H       3.09549197    -1.02086869     1.54963219
H       5.67863317    -2.50546895     2.05092419
H       4.08252047    -3.21061131     1.40646700
H       6.88031139    -2.39330982    -1.29781274
N       7.32736965    -2.13673739    -2.75817563
C       6.27644473    -1.23614632    -3.33318836
C       6.53036869     0.17731731    -2.79269701
O       7.61511194     0.71737062    -2.93683118
H       8.24881589    -1.65312628    -2.78596571
H       7.36457036    -3.01673674    -3.29745785
H       6.31162378    -1.17142735    -4.45282387
H       5.27227772    -1.64274689    -3.00555996
N       5.43552206     0.81868454    -2.22372331
C       5.59831764     2.17490574    -1.65436314
C       4.94784240     2.23589949    -0.27771125
O       3.82632587     1.80901814    -0.02457184
O       5.70867176     2.81920158     0.63114692
H       4.62441086     0.27990041    -1.89322854
H       6.69723437     2.43728558    -1.58132037
H       5.08876610     2.91655617    -2.33124335
H       5.32830396     2.67382338     1.69997720
N       0.94103234     2.76516023    -0.28100743
C       0.57195910     2.35218864     1.10305715
C       0.63379259     0.82682394     1.18921790
O       1.25189079     0.24433977     2.07319490
H       1.87605760     2.38088324    -0.51814065
H       0.95180420     3.78915947    -0.34766857
H       1.24980291     2.76416797     1.89497339
H      -0.48301068     2.69252003     1.29790094
N      -0.11904860     0.14147568     0.23476936
C      -0.04930020    -1.32744513     0.15807943
C       1.35929627    -1.83842892    -0.11223247
O       1.87457737    -2.82297328     0.37046151
O       2.02040300    -1.02775459    -0.96635671
H      -0.36154866     0.62776649    -0.63691250
H      -0.38016180    -1.76116454     1.14692244
H      -0.72297575    -1.69225753    -0.66178283
H       3.03520230    -1.25325985    -1.04644949
   51
assoc164.out    B3LYP-D3 energy of the complex (kJ/mol) =     -95.76 
N       5.20698571    -2.54038355     2.49972155
C       3.74955243    -2.28114343     2.26157368
C       3.46749386    -2.38798377     0.76006117
O       3.19104778    -3.45655984     0.23467132
H       5.53031164    -3.31871998     1.89310990
H       5.34930431    -2.78100537     3.49624804
H       3.08643877    -3.02503462     2.77824999
H       3.51529615    -1.24477330     2.65697779
N       3.45497571    -1.19867211     0.04527227
C       3.47636886    -1.20766366    -1.43016854
C       4.82065841    -0.72035411    -1.94769424
O       5.00186465     0.09349642    -2.82959178
O       5.85070296    -1.27761809    -1.27644382
H       3.75200497    -0.31939315     0.47681843
H       3.28279725    -2.24894288    -1.82017782
H       2.67216356    -0.50526774    -1.81830498
H       6.79644531    -0.90416685    -1.58570971
N       8.13480747     0.01562296    -2.30337677
C       7.66004658     1.42919435    -2.19225968
C       7.59474383     1.75183123    -0.69935419
O       8.60054736     1.90584340    -0.02657781
H       9.04339994    -0.08579237    -1.82044894
H       8.22223109    -0.23918467    -3.29913313
H       8.34904884     2.17521771    -2.66866080
H       6.64867539     1.49161857    -2.69275883
N       6.32349389     1.89583975    -0.14418529
C       6.18904078     2.05235599     1.31409092
C       5.65308672     0.75581184     1.90776729
O       4.50551808     0.62073994     2.35928772
O       6.47984552    -0.26234180     1.88386823
H       5.45637816     1.71621767    -0.66030873
H       7.20317794     2.27661193     1.76714460
H       5.47055014     2.88805516     1.53233928
H       5.97184222    -1.25075955     2.17155443
N       0.11965816    -2.28306966     0.46585848
C      -0.60694116    -1.62297552    -0.65293055
C       0.12395842    -0.33228807    -1.02168433
O       0.59211884    -0.13897413    -2.13264805
H       1.08112177    -2.50691718     0.16789515
H      -0.37578167    -3.13993980     0.74434492
H      -0.66711216    -2.24465026    -1.58793974
H      -1.64671334    -1.37796840    -0.30662690
N       0.16681675     0.65935611    -0.03747660
C       0.90698981     1.90677628    -0.29014915
C       2.29969841     1.83919975     0.32022575
O       3.36359461     1.82317872    -0.26757611
O       2.24426187     1.76712964     1.66674451
H      -0.03254491     0.43205431     0.93876154
H       1.01914771     2.05566092    -1.40870757
H       0.34392840     2.76838084     0.16178046
H       3.17604348     1.60194682     2.11022481
   51
assoc46.out     B3LYP-D3 energy of the complex (kJ/mol) =     -88.03 
N       6.85645970    -2.42609141     2.80950668
C       5.92263858    -3.20239352     1.93474904
C       6.32565467    -2.95150733     0.47850278
O       7.42577529    -3.25494821     0.05478539
H       7.81491996    -2.46345298     2.40803301
H       6.85610359    -2.82934916     3.75960059
H       5.96666379    -4.31141191     2.09925088
H       4.87648628    -2.83709620     2.15646404
N       5.32033803    -2.44033498    -0.34027989
C       5.62173968    -2.12751792    -1.75061040
C       5.40568663    -0.63647039    -1.99418525
O       4.29914450    -0.11483726    -2.08373077
O       6.52627445     0.04798852    -2.09654708
H       4.49780493    -1.98290035     0.06669761
H       6.69522652    -2.39995970    -1.98528230
H       4.92926372    -2.71777079    -2.40866373
H       6.36759462     1.18512120    -2.14110476
N       6.06600183     2.67849662    -2.21656726
C       4.71845820     2.83297713    -1.57718526
C       4.91199205     2.64491792    -0.07325410
O       5.88330118     3.10849295     0.50757599
H       6.77332907     3.21305137    -1.66775669
H       6.03730218     3.00960908    -3.19395840
H       4.25306521     3.83543870    -1.75529098
H       4.03464997     2.03220046    -2.00335145
N       3.93623281     1.91237309     0.58613524
C       4.09385013     1.60887678     2.01492018
C       4.64471649     0.19748424     2.17531907
O       4.08117282    -0.85398213     1.86024947
O       5.84940396     0.16539240     2.72705150
H       3.09778705     1.55510746     0.11107330
H       4.81808342     2.34331212     2.48394395
H       3.09462709     1.66576615     2.54174130
H       6.26173408    -0.84890113     2.80279910
N       1.75987812    -1.38163387    -2.58921606
C       1.47003616     0.03827646    -2.94644290
C       1.12359499     0.76818330    -1.64971171
O       1.64900856     1.82428210    -1.32067536
H       2.67637392    -1.40549511    -2.10439400
H       1.78619812    -1.95758415    -3.43765246
H       2.35355895     0.55979879    -3.40852210
H       0.59138359     0.09060987    -3.64004158
N       0.09593595     0.18573434    -0.89317501
C      -0.16741942     0.69346189     0.46245265
C       0.90223814     0.27390776     1.45831439
O       1.14824798     0.79816038     2.52382859
O       1.60727019    -0.78550523     0.99913436
H      -0.07780597    -0.82004261    -1.03171373
H      -0.18610424     1.82466626     0.42897481
H      -1.16634886     0.31846375     0.81830373
H       2.43783422    -1.01868456     1.57180167
   51
assoc153.out    B3LYP-D3 energy of the complex (kJ/mol) =     -86.90 
N       5.44402342    -0.38871782     3.74401853
C       3.98989381    -0.46691645     3.38659760
C       3.86366438    -1.57986824     2.34033878
O       4.06447289    -2.74837256     2.62531217
H       5.79875141    -1.33760452     3.97396250
H       5.57264545     0.25159651     4.54537447
H       3.33554881    -0.72942282     4.25806096
H       3.67607740     0.54337780     2.98117748
N       3.49696151    -1.18001351     1.06538058
C       3.57974598    -2.11959628    -0.06976121
C       4.43322380    -1.48410153    -1.15553093
O       4.21267673    -0.39823092    -1.67990416
O       5.47520206    -2.24207724    -1.47729682
H       3.31562708    -0.19318307     0.83426102
H       4.03473867    -3.09836356     0.26647922
H       2.54838767    -2.31100568    -0.49842784
H       6.16804142    -1.77782057    -2.18958451
N       7.16372540    -0.96920569    -3.21952868
C       6.58037866     0.40861165    -3.26983975
C       7.05695296     1.15502833    -2.02215494
O       8.24131116     1.21001087    -1.72078908
H       8.13467117    -0.91879911    -2.84882295
H       7.15829848    -1.38831843    -4.16155489
H       6.90034656     1.00103670    -4.16491136
H       5.45356774     0.29508043    -3.28244780
N       6.06956716     1.80551635    -1.29216363
C       6.40905534     2.47318568    -0.02754009
C       5.84897393     1.68217157     1.14879904
O       4.73090744     1.86965748     1.64201008
O       6.65229999     0.76773315     1.64648793
H       5.06643678     1.66795073    -1.48630902
H       7.53448024     2.53594964     0.07513617
H       5.96008460     3.50547447    -0.01452065
H       6.16610989     0.18939200     2.50792285
N       0.40012101    -1.47093616     2.29987139
C      -0.48693609    -1.56979073     1.10643480
C       0.25122541    -1.04997887    -0.12547576
O       0.62311599    -1.79543621    -1.02466835
H       1.31936818    -1.87838841     2.08111827
H      -0.03550057    -1.96973307     3.08820376
H      -0.81027781    -2.61991548     0.87012991
H      -1.39725656    -0.93941509     1.30075123
N       0.39042184     0.33272322    -0.22429323
C       1.16586183     0.90055285    -1.34417822
C       2.32842862     1.75668410    -0.89370308
O       3.04611755     2.45734152    -1.56936462
O       2.50757247     1.66090120     0.45147764
H       0.30381659     0.92209259     0.60938510
H       1.58866947     0.06040528    -1.98723067
H       0.47672247     1.52890695    -1.97175828
H       3.34605059     2.17021093     0.79574793
   51
assoc170.out    B3LYP-D3 energy of the complex (kJ/mol) =     -86.87 
N       6.00223296     3.75444487    -0.29124666
C       5.34432564     3.11076550     0.89247508
C       6.22398203     1.95053832     1.35694554
O       7.39492369     1.84567389     1.02131751
H       7.03731920     3.75196717    -0.15056257
H       5.65449787     4.71940106    -0.40480100
H       5.17952130     3.81538341     1.74664322
H       4.34209155     2.70386078     0.54450166
N       5.61241204     1.04683913     2.21424824
C       6.31527281    -0.17935846     2.61611257
C       5.68672457    -1.36966583     1.90726296
O       4.50639914    -1.66938245     1.87138232
O       6.61365268    -2.09420268     1.25719986
H       4.60259619     1.09842396     2.43784808
H       7.41173036    -0.10768067     2.33920959
H       6.21326951    -0.32499614     3.72609033
H       6.22389862    -2.97942878     0.78831962
N       5.44649650    -4.10496819    -0.25373560
C       4.12637832    -3.50587769    -0.61813813
C       4.22151544    -2.48012615    -1.74532831
O       3.52045994    -2.54979472    -2.74095132
H       5.99245924    -4.30715547    -1.10739077
H       5.28369213    -4.97743814     0.27838891
H       3.37927241    -4.28009223    -0.94626113
H       3.72735739    -2.97479809     0.30555507
N       5.13696600    -1.44228414    -1.58043463
C       5.21450802    -0.33563093    -2.54981816
C       4.94588128     0.97733446    -1.82725968
O       4.08474165     1.14858660    -0.96530896
O       5.76415463     1.94347876    -2.19506923
H       5.68422918    -1.34537450    -0.72942660
H       6.24102631    -0.31140439    -3.01392974
H       4.44218844    -0.48007562    -3.36564132
H       5.73328924     2.84982815    -1.48796318
N       1.52301335     0.90486902    -2.81561261
C       1.13536296    -0.47049650    -2.43034266
C       0.85652743    -0.61524187    -0.93374244
O      -0.24969321    -0.78520579    -0.46095440
H       2.34919196     1.20850824    -2.29160989
H       0.74502512     1.54856838    -2.65423100
H       0.19288740    -0.75163589    -2.97804553
H       1.94962193    -1.18266319    -2.75556269
N       1.99000180    -0.54624309    -0.09821881
C       1.81204839    -0.26222606     1.32848942
C       1.98869313     1.22099073     1.60068578
O       2.85707053     1.78127200     2.24546630
O       1.02306356     1.98184253     1.02142894
H       2.91449691    -0.30512786    -0.48260962
H       0.77394848    -0.57722406     1.65237519
H       2.59622732    -0.82956839     1.91753190
H       1.13925333     2.95513703     1.19432080
   51
assoc2.out      B3LYP-D3 energy of the complex (kJ/mol) =     -86.66 
N       6.44520415     3.36181258     1.27436008
C       4.96775637     3.10935589     1.22995936
C       4.67854662     1.84383222     2.03695829
O       5.34260167     1.55342357     3.01841996
H       6.81053511     3.08432603     2.21034107
H       6.63101932     4.35908326     1.08881037
H       4.36834557     3.94765146     1.66443949
H       4.69170527     2.97462275     0.13743523
N       3.55257173     1.10573012     1.64769114
C       3.43558413    -0.27215350     2.17681203
C       3.96554366    -1.24125205     1.13205173
O       4.05612310    -0.95888837    -0.06121227
O       4.31896451    -2.41844520     1.60864741
H       3.19011847     1.19963377     0.68060181
H       4.01437321    -0.37270653     3.13949319
H       2.34922886    -0.51443068     2.35959791
H       4.77648136    -3.08836879     0.79433736
N       5.36440769    -3.93452506    -0.34763782
C       5.19657423    -3.11465943    -1.59200766
C       6.33624299    -2.09620303    -1.63261349
O       7.42135121    -2.33131784    -1.12027101
H       6.38393111    -4.07821615    -0.16982650
H       4.88408874    -4.84011753    -0.45698811
H       5.22628990    -3.72577958    -2.52866806
H       4.19723405    -2.57473460    -1.52000118
N       6.08616336    -0.93160426    -2.35352096
C       7.06307717     0.16687449    -2.30434694
C       6.59568414     1.26989241    -1.36467749
O       5.46623961     1.77219221    -1.34954079
O       7.53140942     1.71503729    -0.55053302
H       5.12314386    -0.68961428    -2.64335790
H       8.06243281    -0.22879241    -1.94238671
H       7.18129449     0.60232010    -3.33400244
H       7.11623260     2.46042660     0.21454175
N       0.52582772     2.52177574     1.42119518
C      -0.19556895     1.23603147     1.61706034
C       0.33358565     0.17969470     0.64306056
O       0.54287561    -0.96940334     1.00487181
H       1.48597415     2.43801303     1.78080714
H       0.02662177     3.27842132     1.90336635
H      -0.08804770     0.81018011     2.65215161
H      -1.28653334     1.38959920     1.39160910
N       0.46029640     0.56566650    -0.69080376
C       1.00540401    -0.37764849    -1.67825055
C       2.48238521    -0.18608702    -1.96488721
O       3.14906358    -0.88530697    -2.70886261
O       3.00171669     0.90566973    -1.36593018
H       0.50939745     1.55925671    -0.93239436
H       0.86436720    -1.43842886    -1.30111789
H       0.45043722    -0.25457576    -2.65149200
H       4.03922130     0.95527096    -1.48761767
   51
assoc271.out    B3LYP-D3 energy of the complex (kJ/mol) =     -85.52 
N       5.42013864    -0.16769538    -4.01455931
C       4.92628077     1.13272504    -3.45771651
C       5.95701524     1.64584129    -2.45196390
O       7.14443427     1.38176907    -2.54906308
H       6.46038148    -0.13263434    -4.08930650
H       4.98991255    -0.33910827    -4.93536438
H       4.77597717     1.91824217    -4.24019202
H       3.94066856     0.93421815    -2.92796955
N       5.45863145     2.51971580    -1.48379086
C       6.34863857     2.95825062    -0.39757255
C       6.11413107     2.13674673     0.86240411
O       5.01228614     1.91172637     1.37452660
O       7.21569207     1.68747966     1.42611605
H       4.44249248     2.56807586    -1.30541486
H       7.42905062     2.83079664    -0.71844943
H       6.14241648     4.03853201    -0.16423397
H       6.99389520     0.97466773     2.30051871
N       6.63104835    -0.04894583     3.38396939
C       5.19203801    -0.42264690     3.18536534
C       5.13913160    -1.50667452     2.10678671
O       6.04166018    -2.31942002     1.98814234
H       7.22362170    -0.89638538     3.23365752
H       6.76420206     0.33494364     4.33201985
H       4.70973818    -0.81860012     4.11350077
H       4.64710903     0.51607141     2.84864928
N       3.96295325    -1.56672677     1.34783586
C       4.00873426    -2.33385079     0.08241372
C       4.32887122    -1.39014696    -1.06590655
O       4.20332558    -0.17028597    -1.00013003
O       4.75733559    -2.00115991    -2.15745951
H       3.35002794    -0.73119411     1.29510587
H       4.79110830    -3.14465919     0.13638387
H       2.99322761    -2.79745570    -0.10365383
H       5.05070881    -1.26746038    -2.97274736
N       1.06155853    -1.56651134     3.10549085
C       0.37826870    -2.28478209     1.99607297
C       0.62767723    -1.56432137     0.66892868
O       0.92147478    -2.17443318    -0.35105899
H       2.07780937    -1.69512940     3.02058827
H       0.72386541    -1.91784368     4.01095028
H       0.71793226    -3.34793989     1.86497981
H      -0.72913850    -2.27998984     2.18593641
N       0.39542255    -0.18897425     0.65660009
C       0.67142540     0.58554614    -0.56391273
C       2.02531570     1.27325591    -0.56906480
O       2.47273396     1.97121951    -1.46019381
O       2.69908208     1.07648798     0.58222792
H       0.38793280     0.33514891     1.53699388
H       0.63961923    -0.10838743    -1.45989389
H      -0.12200299     1.37605548    -0.67659540
H       3.67039297     1.46504079     0.54137538
   51
assoc71.out     B3LYP-D3 energy of the complex (kJ/mol) =     -80.33 
N       5.76406067     3.41314742    -2.00419090
C       4.64410837     3.21333487    -1.03312611
C       5.25591998     2.64575655     0.24854964
O       6.31648394     3.05311412     0.69566950
H       6.57144742     3.84727302    -1.51155560
H       5.44816896     4.00957663    -2.78262297
H       4.10120253     4.15705926    -0.77155766
H       3.91049309     2.48423720    -1.49566248
N       4.48689947     1.69236727     0.91287229
C       5.03979306     0.98614140     2.08027896
C       5.10621738    -0.51276461     1.81329827
O       4.20161664    -1.17305014     1.30410308
O       6.23443441    -1.04688690     2.22903505
H       3.68135761     1.26167616     0.44775008
H       6.08216641     1.37642265     2.30165362
H       4.38188685     1.16438958     2.97296114
H       6.36301466    -2.15288854     1.94403006
N       6.52703328    -3.57474268     1.44648529
C       5.58786283    -3.69603835     0.28383469
C       6.21520534    -2.92094343    -0.87850579
O       7.42668053    -2.78229048    -0.95816225
H       7.50916667    -3.67119806     1.10454201
H       6.30743633    -4.28778306     2.15772615
H       5.41381385    -4.75265223    -0.03953031
H       4.61025476    -3.21610169     0.59387331
N       5.34363649    -2.44422067    -1.84800750
C       5.83750549    -1.45860949    -2.82516409
C       5.47248904    -0.04189821    -2.39408397
O       4.50283543     0.29874954    -1.73361392
O       6.35976182     0.84741525    -2.84774270
H       4.31934469    -2.48451805    -1.72817621
H       6.96490878    -1.53677041    -2.91388859
H       5.36960699    -1.66595487    -3.82523811
H       6.16451023     1.86270032    -2.49674315
N       2.32931669    -1.62351873    -1.45188301
C       1.61400929    -2.15353199    -0.26839866
C       0.75089732    -1.08556925     0.41175281
O      -0.43358505    -0.91620756     0.19409715
H       2.93175840    -0.81890066    -1.17911523
H       1.65598726    -1.33393376    -2.17491864
H       0.94187788    -2.99464410    -0.58817105
H       2.37566111    -2.55563288     0.45443118
N       1.44212281    -0.28778372     1.33858491
C       0.81831043     0.92767903     1.86739425
C       1.11478566     2.11517712     0.96621485
O       1.78438889     2.18035593    -0.04014703
O       0.51562906     3.23846606     1.47079694
H       2.46858971    -0.35697547     1.42302651
H      -0.30589633     0.78361021     1.92044308
H       1.21340378     1.14412695     2.89748666
H       0.66712435     4.04860330     0.91390646
   51
assoc198.out    B3LYP-D3 energy of the complex (kJ/mol) =     -80.28 
N       7.94552493     1.22887554    -2.60874483
C       6.87250943     2.21139416    -2.24028617
C       6.89503848     2.34134001    -0.71529972
O       7.95022610     2.25979570    -0.10137898
H       8.77919581     1.39076007    -1.99903443
H       8.19320804     1.33301016    -3.60444914
H       7.02478172     3.22363884    -2.69019811
H       5.88539506     1.78022160    -2.58764124
N       5.68609255     2.61146763    -0.08727192
C       5.61302024     2.51495428     1.38063664
C       5.12231908     1.13501319     1.78792740
O       4.43252390     0.38336222     1.11115068
O       5.50037492     0.79507885     3.02215682
H       4.77668236     2.54137665    -0.57434172
H       6.63355291     2.69705088     1.83372436
H       4.88556132     3.28206867     1.76581735
H       5.18947146    -0.22104407     3.27481684
N       4.63125309    -1.78621476     3.53729102
C       3.72854401    -2.12055377     2.39005027
C       4.60655037    -2.49375188     1.19289706
O       5.65761489    -3.09638284     1.33476274
H       5.45996398    -2.41650165     3.51163667
H       4.12042975    -1.89084594     4.42616633
H       3.04709007    -2.98652625     2.59562128
H       3.11414951    -1.19944705     2.17113215
N       4.06896213    -2.21559177    -0.07370597
C       4.95096576    -2.33614299    -1.24890952
C       5.61257558    -1.01598436    -1.62474044
O       5.08469297     0.09846792    -1.60320976
O       6.85095290    -1.16538848    -2.05406610
H       3.33219036    -1.50158961    -0.15151313
H       5.75781687    -3.10134935    -1.03119546
H       4.33584233    -2.67277463    -2.12809052
H       7.35794199    -0.16221080    -2.28749941
N       0.66921377    -2.61635310     0.84860675
C      -0.57756559    -2.15305337     0.17864870
C      -0.37980236    -0.75996623    -0.42583102
O      -0.81205275    -0.46569892    -1.52536392
H       1.42478859    -2.71578299     0.15714306
H       0.49254334    -3.51506951     1.31650493
H      -0.92400587    -2.82728705    -0.65008113
H      -1.39534844    -2.08465021     0.94776367
N       0.21850942     0.19264723     0.40874766
C       0.60149360     1.50220751    -0.14448304
C       2.09029255     1.61451406    -0.42014415
O       2.73014587     2.64946273    -0.47889800
O       2.68117073     0.41990462    -0.60157189
H       0.75305941    -0.12274277     1.21899907
H       0.05050431     1.67767146    -1.12117030
H       0.31097064     2.30231611     0.59314970
H       3.73586099     0.50829582    -0.68676188
   51
assoc59.out     B3LYP-D3 energy of the complex (kJ/mol) =     -76.65 
N       8.11349971     2.71787897    -1.08531137
C       7.01969305     3.20028532    -0.18018645
C       7.04108927     2.26809594     1.03394488
O       8.08217048     1.99870012     1.61694926
H       8.96160969     2.52711908    -0.50761728
H       8.31517929     3.42559088    -1.81034065
H       7.16363608     4.24721153     0.18360355
H       6.04547684     3.13385974    -0.75818559
N       5.82806082     1.70952236     1.39408785
C       5.79074922     0.70162551     2.46829352
C       4.93685907    -0.47247301     2.02670462
O       3.86287282    -0.40670096     1.44119491
O       5.49156525    -1.63482885     2.37580968
H       4.93361504     1.98120247     0.95854250
H       6.84452837     0.33515483     2.68563209
H       5.34291535     1.13435997     3.40336582
H       4.98786375    -2.50494219     2.00461118
N       4.09914619    -3.82857170     1.23304596
C       3.27220333    -3.07726047     0.24142363
C       4.17882272    -2.71960244    -0.93732686
O       4.80972999    -3.56409613    -1.55149296
H       4.72135529    -4.48423561     0.72659517
H       3.48340134    -4.34747627     1.87658873
H       2.39964823    -3.65160058    -0.16920932
H       2.89503294    -2.17416445     0.79929384
N       4.21405701    -1.37385038    -1.27717614
C       5.09429046    -0.89500320    -2.36151040
C       5.73555929     0.42710557    -1.96390788
O       5.11618831     1.43991799    -1.62087147
O       7.04912849     0.42891779    -2.03385210
H       3.75493138    -0.65981880    -0.70316057
H       5.89809976    -1.66154519    -2.58837567