  34
assoc59.out B3LYP-D3/def2-TZVP interaction energy (in kJ/mol) = -190.03
N       5.58428152    -1.44543432    -1.69044730
C       6.64923962    -0.40326624    -1.88311336
C       6.65728862     0.51508957    -0.65310421
O       7.59140259     0.54057074     0.12434002
H       5.36630628    -1.54641089    -0.66965934
H       5.89246716    -2.35026283    -2.08714652
H       7.67349766    -0.85609172    -1.97384804
H       6.42689892     0.17735782    -2.81805973
N       5.50915561     1.29075349    -0.49037029
C       5.15676575     1.72883565     0.87028509
C       4.10880045     0.80454924     1.47390416
O       3.22103773     1.11909558     2.23503226
O       4.24981067    -0.48540674     1.05281320
H       4.69113248     1.18207661    -1.12963546
H       6.07304947     1.73505996     1.53265294
H       4.72225724     2.76745118     0.81768085
H       3.40976455    -1.05647685     1.23938522
N       0.23298587     1.28857827     1.86906317
C       0.29423870    -0.19401253     1.99837424
C       0.91327372    -0.77431147     0.72779613
O       1.77468962    -1.65524697     0.77920538
H       1.19906555     1.66540652     1.89386193
H      -0.32010927     1.68174942     2.64051032
H       0.92178745    -0.54610310     2.86347796
H      -0.74650619    -0.60128724     2.10465408
N       0.41329920    -0.31354153    -0.48065613
C       1.00485397    -0.75623180    -1.75574204
C       2.45354769    -0.29063240    -1.89635239
O       2.89072438     0.79329364    -1.52621352
O       3.21727414    -1.20357472    -2.45899447
H      -0.12347176     0.56018562    -0.49472853
H       1.00024048    -1.88592696    -1.78874258
H       0.40560373    -0.35053953    -2.61162654
H       4.36436766    -1.05985958    -2.23722044
   34
assoc82.out B3LYP-D3/def2-TZVP interaction energy (in kJ/mol) = -176.25
N       5.79875828     2.92347127     0.40919265
C       6.49964533     1.97397148     1.33119271
C       6.59045468     0.60881285     0.62937105
O       7.52042586     0.33543069    -0.10819224
H       6.24172196     2.88681300    -0.53197320
H       5.85560354     3.88478070     0.79160275
H       7.55167716     2.29485451     1.56317546
H       5.91895351     1.90771476     2.29079790
N       5.58902361    -0.29268849     0.96176223
C       5.49264899    -1.57089883     0.23184968
C       4.16933956    -1.66998894    -0.51281097
O       3.32306274    -2.52476836    -0.35730089
O       4.01691904    -0.66432037    -1.40501973
H       4.71338998     0.03119196     1.41982679
H       6.34591661    -1.66387727    -0.50595541
H       5.54268303    -2.41399519     0.97758929
H       3.07531799    -0.62758991    -1.82098665
N       0.47863885    -2.52633929     0.68235263
C       0.11150473    -2.07442168    -0.68894249
C       0.69471674    -0.68442724    -0.92528811
O       1.25388176    -0.38720401    -1.98130497
H       1.50847302    -2.64208005     0.73319439
H       0.01074243    -3.41687845     0.89010168
H       0.50701531    -2.73960923    -1.50603495
H      -1.00671833    -2.01134877    -0.76770245
N       0.50962455     0.26063288     0.07638448
C       1.13654161     1.58583329    -0.04436468
C       2.55692932     1.60304274     0.50867969
O       3.01224377     0.83503937     1.34812748
O       3.27742137     2.57545885    -0.02063030
H       0.25094953    -0.04724770     1.02002515
H       1.18191629     1.87818346    -1.13805029
H       0.52211193     2.34024486     0.51600340
H       4.39975193     2.54415530     0.28373227
   34
assoc65.out B3LYP-D3/def2-TZVP interaction energy (in kJ/mol) = -176.24
N       5.27572729    -2.96862290     1.58667628
C       6.08046623    -2.52491796     0.40587728
C       6.26553388    -1.00757832     0.51184321
O       6.85955631    -0.49478439     1.44546206
H       5.61891266    -2.48751771     2.44033493
H       5.36038113    -3.99116816     1.69598823
H       7.10352873    -2.98279558     0.36544587
H       5.50435172    -2.81584477    -0.52129832
N       5.77414432    -0.26671945    -0.55998833
C       5.80482685     1.20635516    -0.50823753
C       4.37910341     1.74157384    -0.53683635
O       3.59300103     1.63314583    -1.46545422
O       4.05553931     2.36336202     0.59897741
H       5.11530079    -0.68748788    -1.23263471
H       6.32690138     1.54671961     0.43761823
H       6.35298081     1.59625417    -1.40920724
H       3.02421426     2.69571371     0.63265834
N       1.40259150     3.16966681     0.62654587
C       0.80572901     2.48613016    -0.56318938
C       0.57912389     1.01694726    -0.19180448
O      -0.17499261     0.68925708     0.70896796
H       0.91186630     2.85877994     1.48713134
H       1.31424284     4.19174811     0.51608615
H      -0.18713421     2.90878638    -0.86911538
H       1.53781640     2.59751062    -1.41636376
N       1.23407215     0.08690080    -0.99508856
C       1.16999779    -1.34689733    -0.65791918
C       2.56991847    -1.85110619    -0.33227813
O       3.50582975    -1.91762997    -1.11436084
O       2.68246407    -2.22521985     0.94395259
H       2.00604391     0.37742074    -1.61419469
H       0.48618068    -1.50223441     0.23162382
H       0.77991618    -1.91760991    -1.54473183
H       3.68642708    -2.52597070     1.22066389
   34
assoc52.out B3LYP-D3/def2-TZVP interaction energy (in kJ/mol) = -142.61
N       4.36432174     0.55094222     1.77575298
C       5.11239926    -0.72088893     2.07123372
C       6.33015982    -0.80263706     1.14114800
O       7.46866297    -0.79726535     1.56949938
H       5.01641662     1.24800583     1.34815564
H       3.95048364     0.92680173     2.64692473
H       5.49125788    -0.75570581     3.12801995
H       4.42471315    -1.59490205     1.90392807
N       6.02386489    -0.83404417    -0.21486999
C       7.04605493    -0.41502625    -1.17802597
C       7.04931049     1.08771699    -1.39975667
O       7.61825083     1.71688048    -2.25435803
O       6.28833808     1.76473464    -0.45804754
H       5.03519558    -0.81533998    -0.56336077
H       8.07562801    -0.70717740    -0.80379849
H       6.84973100    -0.91658016    -2.16940319
H       6.30219409     2.74809590    -0.61837759
N      -0.90627600     1.44693079     1.54193835
C      -1.66180928     0.26211697     1.04413222
C      -0.77980359    -0.57699232     0.11858564
O      -0.73759063    -1.79280941     0.19016246
H       0.01741910     1.15266566     1.88938843
H      -1.44302005     1.91507870     2.28140113
H      -2.02999975    -0.41826395     1.85801128
H      -2.54231956     0.64004660     0.45470497
N      -0.07986582     0.13052402    -0.87065519
C       1.02790012    -0.54549190    -1.56277395
C       2.36352729    -0.39609443    -0.84873900
O       3.42037124    -0.81074003    -1.31924543
O       2.32227887     0.21556206     0.31907630
H       0.01090466     1.14659073    -0.77545368
H       0.80072099    -1.65420461    -1.63236460
H       1.12471898    -0.12515291    -2.60055055
H       3.37106903     0.28972385     0.84616885
   34
assoc53.out B3LYP-D3/def2-TZVP interaction energy (in kJ/mol) = -131.15
N       4.42807668     2.12290214    -0.09153551
C       5.84334331     2.29772937     0.35380696
C       6.56176455     0.95263707     0.23462349
O       7.57026957     0.79939323    -0.42504213
H       4.39495478     1.48910265    -0.90895341
H       4.02228995     3.03881494    -0.32414797
H       6.41836352     3.04340705    -0.25772779
H       5.82811724     2.63662866     1.42412341
N       5.98438020    -0.10499493     0.96779735
C       6.20601429    -1.47675905     0.47350907
C       5.08882165    -1.90275319    -0.47005645
O       4.69962166    -3.04447503    -0.63482678
O       4.49356031    -0.87598257    -1.08505699
H       5.06841118     0.04763701     1.39183403
H       7.18956195    -1.52538453    -0.08387234
H       6.24189664    -2.18312063     1.34634112
H       3.55352146    -1.20796178    -1.70892395
N       2.18209789    -1.36081017    -2.00212879
C       1.61465114    -2.11709298    -0.83134823
C       1.20391794    -1.14645510     0.27681379
O       0.08332870    -1.14461645     0.74569116
H       1.73306643    -0.42281249    -2.06303955
H       2.03297739    -1.90121243    -2.87214663
H       0.70539518    -2.71512004    -1.10929810
H       2.41167583    -2.83251471    -0.45453385
N       2.19390264    -0.25777560     0.73212537
C       1.74819790     0.99962253     1.35052577
C       1.45312268     2.08477806     0.33140558
O       1.30634519     3.26759993     0.50437418
O       1.35117520     1.58264982    -0.96066453
H       3.10522584    -0.18836239     0.25771513
H       0.80406093     0.81841915     1.95023700
H       2.56590786     1.38221711     2.02887970
H       1.11453999     2.29589436    -1.61263037
   34
assoc61.out B3LYP-D3/def2-TZVP interaction energy (in kJ/mol) = -102.02
N       3.60801525     1.65635600    -0.42271053
C       4.73703649     2.56497835    -0.07319853
C       5.90266899     1.72272208     0.44574394
O       7.05003119     1.88835493     0.09266488
H       3.93477589     0.90391398    -1.05394761
H       2.84262703     2.18099394    -0.88200429
H       5.12113924     3.16608701    -0.94233794
H       4.39169925     3.26725195     0.73064436
N       5.56784637     0.71702771     1.39293687
C       6.37303278    -0.52043720     1.37217652
C       5.68820489    -1.47801389     0.40228873
O       5.02017825    -2.45843792     0.68112604
O       5.79735098    -1.05305003    -0.87682304
H       4.58333560     0.57400549     1.62758880
H       7.42292834    -0.28819306     1.02318941
H       6.39663702    -0.97545000     2.39822973
H       5.08924289    -1.45924747    -1.49916471
N       1.62771842     0.93124183     2.00791236
C       0.48523218     1.43218618     1.19042789
C       0.61869257     0.83708900    -0.21170733
O       0.72745990     1.52210341    -1.21574666
H       1.57071746     1.31904721     2.95744604
H       2.51299434     1.20247083     1.55199953
H      -0.47342398     1.08664654     1.66159818
H       0.45858109     2.54949685     1.07821082
N       0.56956605    -0.56148331    -0.27725382
C       0.96370196    -1.24914731    -1.51760784
C       2.41783668    -1.68404065    -1.39215746
O       3.38533745    -1.21148548    -1.96333718
O       2.55222004    -2.68399659    -0.49490797
H       0.63897886    -1.11483141     0.58366192
H       0.30874575    -2.14976720    -1.67093806
H       0.86663214    -0.54037183    -2.39514417
H       3.53166465    -2.86999259    -0.22820874
   34
assoc8.out B3LYP-D3/def2-TZVP interaction energy (in kJ/mol) = -101.90
N       8.44674031     1.66894061    -1.77744552
C       9.08231320     0.37051424    -1.42058592
C       8.25097343    -0.35011447    -0.36012917
O       8.08297240    -1.55648745    -0.36803148
H       7.49392801     1.50949510    -2.13500936
H       9.02014904     2.15966845    -2.47380843
H       9.19776884    -0.33631900    -2.28657674
H      10.09671264     0.58347789    -0.98277547
N       7.75220242     0.44741233     0.68516753
C       6.72058586    -0.11521311     1.56441631
C       5.30301831     0.12611573     1.07653185
O       4.29179100    -0.24795428     1.65820099
O       5.22941348     0.81610262    -0.07305649
H       7.74508480     1.46650129     0.57044301
H       6.86690085    -1.24079258     1.63436088
H       6.82195246     0.33433440     2.59170185
H       4.24493681     0.96768461    -0.40425545
N      -1.52819198    -1.44307856     1.92027526
C      -2.01928394    -1.69173464     0.53753965
C      -1.14117309    -0.95737331    -0.47564018
O      -0.85306849    -1.43662354    -1.55814014
H      -0.58088964    -1.83013727     2.03445281
H      -2.17511910    -1.85680415     2.60218536
H      -2.02800428    -2.77597357     0.24218882
H      -3.06258987    -1.27961885     0.45007833
N      -0.75754405     0.35004047    -0.13306369
C       0.27164718     1.01615500    -0.93972074
C       1.68454112     0.81591990    -0.42211466
O       2.69244049     1.25969212    -0.95945620
O       1.75656437     0.10825544     0.71619384
H      -0.83810888     0.65133910     0.84390264
H       0.23744847     0.60319928    -1.99892636
H       0.06157777     2.12220032    -0.96847431
H       2.73862816    -0.02923638     1.05900654
   34
assoc50.out B3LYP-D3/def2-TZVP interaction energy (in kJ/mol) = -101.81
N       8.72808243     0.12621769     1.93443132
C       9.17884083     0.97391491     0.79702856
C       8.18758927     0.87312894    -0.36220256
O       7.89411478     1.83060370    -1.05609635
H       7.82086505     0.46151839     2.28792067
H       9.43473806     0.13424305     2.67951894
H       9.28144477     2.06397532     1.05018286
H      10.17161229     0.58625197     0.43629133
N       7.69703958    -0.41184717    -0.64979086
C       6.56483142    -0.54226776    -1.57448112
C       5.20927342    -0.53350596    -0.89121324
O       4.13460063    -0.61563664    -1.47394745
O       5.27047227    -0.44345146     0.44675375
H       7.79838496    -1.15079664     0.05412039
H       6.58121480     0.32832776    -2.30613303
H       6.66352044    -1.50685850    -2.14731256
H       4.32717296    -0.43285663     0.90631276
N      -1.73788980    -0.27197633    -1.79319430
C      -2.21499598     0.71178503    -0.78289310
C      -1.23386390     0.78616456     0.38665515
O      -0.96193268     1.83352102     0.94624154
H      -0.82376438     0.02013389    -2.16700860
H      -2.42834117    -0.36192916    -2.54808261
H      -2.33435250     1.75599114    -1.18075536
H      -3.20456165     0.35650650    -0.38221657
N      -0.72343751    -0.43950409     0.84789948
C       0.41001473    -0.42245220     1.77996183
C       1.76607316    -0.46167496     1.09836553
O       2.84149974    -0.45167966     1.68529456
O       1.70491422    -0.52616979    -0.24123653
H      -0.81012531    -1.26895108     0.25109592
H       0.36882898     0.53250074     2.39626207
H       0.33672791    -1.30962314     2.46962310
H       2.64867919    -0.54525807    -0.69982204
   34
assoc57.out B3LYP-D3/def2-TZVP interaction energy (in kJ/mol) = -101.49
N       8.06312505    -2.20634792    -1.05684255
C       8.95710324    -1.37493658    -0.21896921
C       8.17026206    -0.47497743     0.73699371
O       7.89232321    -0.76776523     1.88299287
H       7.34585452    -1.62577981    -1.51140999
H       7.62156187    -2.94156138    -0.48824075
H       9.61350740    -2.04863283     0.39993832
H       9.61831820    -0.77336523    -0.89772881
N       7.75983193     0.76274695     0.19248541
C       6.67934128     1.49913020     0.86231352
C       5.30985917     1.14725755     0.30906565
O       4.24289136     1.57441963     0.72518670
O       5.36146935     0.30011041    -0.73659218
H       7.84432383     0.93467397    -0.80880851
H       6.68435724     1.24209791     1.96969174
H       6.84185735     2.60595435     0.74135087
H       4.41184337     0.05012029    -1.11596675
N      -1.75507353     1.11634237     1.29982956
C      -2.14608636    -0.26907085     0.92410101
C      -1.10792418    -0.87142847    -0.02311704
O      -0.78037888    -2.04395053     0.02762299
H      -0.90304930     1.10002834     1.87718167
H      -2.52494372     1.57573531     1.80087838
H      -2.24352204    -0.97078692     1.79653710
H      -3.12688576    -0.23082907     0.37407973
N      -0.62011471    -0.02303838    -1.03069155
C       0.51911730    -0.47026741    -1.83978331
C       1.86862343    -0.03581792    -1.29833587
O       2.94969605    -0.37671013    -1.76500991
O       1.79578270     0.79554123    -0.24653537
H      -0.74286660     0.99031271    -0.93092096
H       0.52078508    -1.60726498    -1.88163965
H       0.41400071    -0.06327421    -2.88494172
H       2.73049266     1.08250657     0.12249471
   34
assoc36.out B3LYP-D3/def2-TZVP interaction energy (in kJ/mol) = -100.55
N       9.71751730     1.38105808     0.23575066
C       9.12882520     0.69482124    -0.94378571
C       8.21314191    -0.45418112    -0.51472157
O       8.08236602    -1.45997702    -1.19428187
H      10.08914182     2.29846124    -0.03832938
H      10.45532481     0.79913584     0.65244195
H       8.48655570     1.42499618    -1.51110098
H       9.89086806     0.25978916    -1.64623132
N       7.52889780    -0.30240006     0.68988280
C       6.52468310    -1.29146794     1.09540936
C       5.10979593    -0.74707046     1.01304734
O       4.10245156    -1.42675425     0.86522754
O       5.03837291     0.58546714     1.16042557
H       7.57271368     0.57119555     1.22032788
H       6.59318924    -2.19934366     0.41400712
H       6.71097919    -1.61050016     2.15949108
H       4.06148848     0.96056163     1.10201379
N      -1.56482376    -2.12563742    -0.69111988
C      -1.99042642    -0.95045844    -1.49920865
C      -1.15116716     0.27408214    -1.13459639
O      -0.78645265     1.08631282    -1.96646724
H      -0.58656771    -2.36654677    -0.90409582
H      -2.18484244    -2.92277063    -0.87749272
H      -1.89415095    -1.09810782    -2.60905717
H      -3.06324710    -0.71840310    -1.25186291
N      -0.89733022     0.46881252     0.23338961
C       0.09881525     1.47189191     0.62843997
C       1.50377387     0.91546883     0.77408690
O       2.49728066     1.58371696     1.03092788
O       1.58231592    -0.41549820     0.61292801
H      -1.03596964    -0.31508440     0.88037172
H       0.13709879     2.28851079    -0.16195090
H      -0.20322044     1.92611901     1.61362580
H       2.55744726    -0.78863353     0.70977888
   34
assoc43.out B3LYP-D3/def2-TZVP interaction energy (in kJ/mol) = -100.26
N       3.56261113    -1.88732339    -0.93884906
C       4.55914855    -2.63248883    -0.12677956
C       5.21612930    -1.72195022     0.91419957
O       4.86643371    -1.66374785     2.08554298
H       3.94944139    -0.97462988    -1.22827143
H       2.70281097    -1.73486501    -0.38056582
H       4.04055656    -3.47171617     0.41589291
H       5.32063299    -3.07514469    -0.82099934
N       6.25012286    -0.89644797     0.43934092
C       6.51004478     0.37441423     1.14125207
C       5.57455516     1.47572997     0.65437532
O       5.46926042     2.60320901     1.06298756
O       4.81055071     1.00628745    -0.37522082
H       6.44285767    -0.86584192    -0.56437420
H       6.34421071     0.23462484     2.25165618
H       7.57297458     0.69229401     0.96418313
H       4.08951510     1.66152694    -0.71481111
N       0.59486000    -0.77565641    -2.52731552
C       1.04448957     0.61109997    -2.82027189
C       1.63436217     1.21164308    -1.54417039
O       2.67393089     1.86796006    -1.57972443
H       1.40743487    -1.39850470    -2.40458173
H      -0.01680463    -1.11861678    -3.27751607
H       1.83501629     0.68213707    -3.61705441
H       0.15998191     1.23315499    -3.12832950
N       0.90800023     1.03926805    -0.37431046
C       1.47926952     1.38600000     0.93829886
C       2.08645779     0.13270678     1.55149737
O       1.77068338    -1.01286702     1.31507975
O       3.09399838     0.43963348     2.40227361
H       0.13755701     0.35483365    -0.36249487
H       2.26898015     2.18779593     0.83128249
H       0.66431331     1.76992254     1.61292964
H       3.63416109    -0.38915803     2.68379242
   34
assoc9.out B3LYP-D3/def2-TZVP interaction energy (in kJ/mol) = -93.32
N       6.43629081    -1.84140836    -0.37556497
C       7.08699901    -1.55228068     0.93558093
C       6.54544169    -0.23205580     1.47688391
O       6.09072027    -0.12808847     2.60703184
H       5.42999431    -1.61404062    -0.32985662
H       6.57856221    -2.82583810    -0.62779931
H       6.90900074    -2.33692486     1.71823329
H       8.19314221    -1.46080600     0.75340295
N       6.60653212     0.86627935     0.60659767
C       5.70938836     2.00462816     0.86714004
C       4.32624001     1.77403197     0.27289048
O       3.27699973     2.24109691     0.67627156
O       4.37701167     0.96708751    -0.80725899
H       6.81182727     0.69141448    -0.38704249
H       5.59302721     2.14334622     1.98515170
H       6.14881504     2.93571490     0.41646308
H       3.44977878     0.70954294    -1.17132679
N       3.42883482    -1.12501911     1.47883187
C       2.15021905    -0.47755508     1.88328317
C       1.21846784    -0.58284107     0.67644975
O       0.66428358    -1.61065815     0.33144747
H       3.29477998    -2.14383480     1.41768228
H       4.16476635    -0.89067200     2.16881678
H       1.63712509    -0.97609215     2.74837296
H       2.36132651     0.59481463     2.15329277
N       0.98133014     0.62158263    -0.00565263
C       0.19240726     0.60982971    -1.23952306
C       1.09940285     0.51049700    -2.45150965
O       2.31153467     0.52883477    -2.52221258
O       0.35580232     0.40127422    -3.59104006
H       1.54852710     1.46366676     0.18480384
H      -0.50014429    -0.29099686    -1.23841568
H      -0.42184846     1.54915603    -1.31471829
H       0.91480036     0.31982084    -4.41549036
   34
assoc67.out B3LYP-D3/def2-TZVP interaction energy (in kJ/mol) = -93.14
N       7.88374000     2.15690312    -0.53643169
C       7.25525289     1.99451490    -1.87421769
C       6.11233129     0.97764481    -1.79652038
O       5.10647517     1.12536184    -2.48482329
H       7.26666428     2.70216058     0.08069301
H       8.80000511     2.61229025    -0.62833952
H       6.82317532     2.94266909    -2.29651208
H       8.01729363     1.59018911    -2.59644277
N       6.33035507    -0.14233537    -1.01079324
C       5.29687174    -1.15882348    -0.78544059
C       4.60842684    -1.03195805     0.56074568
O       4.27136938    -1.93339281     1.29557202
O       4.36410885     0.26922289     0.90051291
H       7.12971417    -0.15498457    -0.36882772
H       4.48537460    -1.09179557    -1.58933573
H       5.76688440    -2.18155630    -0.84514342
H       3.81733115     0.34913960     1.75382442
N       2.53725098    -0.51735767     3.17670856
C       1.04741431    -0.48870596     3.16272338
C       0.53550883    -0.64048085     1.72758953
O      -0.21237493    -1.53717909     1.38878914
H       2.87707867    -1.42182883     2.78328376
H       2.86938371    -0.40900307     4.14521301
H       0.58118125    -1.31921509     3.76168919
H       0.70213717     0.49711404     3.57472976
N       0.90317835     0.38187272     0.84386517
C       0.59880979     0.25583824    -0.59386052
C       1.89761037     0.02484880    -1.35527655
O       2.41217631    -1.02690386    -1.66638034
O       2.49093707     1.21155647    -1.62896877
H       1.63225778     1.04956323     1.08756341
H      -0.09009173    -0.62614758    -0.76211328
H       0.11133350     1.20323420    -0.95204497
H       3.42893254     1.11166944    -2.05247186
   34
assoc99.out B3LYP-D3/def2-TZVP interaction energy (in kJ/mol) = -91.58
N       3.80443207     0.22383720     2.07506171
C       4.50262784     1.51482308     1.84939534
C       5.25848243     1.45687360     0.51971581
O       4.72854556     1.72578993    -0.55565875
H       4.49276651    -0.54321225     2.12724634
H       3.16158027     0.05046947     1.28837826
H       3.73345647     2.33694737     1.79269555
H       5.17531729     1.72992187     2.71864780
N       6.57698775     0.99113199     0.56540258
C       7.14590366     0.39528756    -0.65787961
C       6.48154395    -0.93680815    -0.98891600
O       6.44615099    -1.49954960    -2.05180539
O       5.86011988    -1.45976900     0.11803694
H       6.95346868     0.62658754     1.44059237
H       6.95532923     1.09208744    -1.53142178
H       8.25071543     0.24437940    -0.53403518
H       5.14578926    -2.15161575    -0.13061513
N       3.24847524    -2.08043675    -0.82567332
C       2.08060314    -2.65853963    -0.10081495
C       0.86326973    -1.75135842    -0.31137146
O       0.15874269    -1.79542735    -1.29827990
H       3.20697008    -1.04417105    -0.77735824
H       3.22806042    -2.37686041    -1.81597708
H       1.84239388    -3.68119547    -0.49977709
H       2.35789942    -2.75944441     0.98006026
N       0.64532408    -0.78902991     0.69963217
C       0.02713086     0.48901000     0.31001240
C       1.06773008     1.51433622    -0.12379669
O       0.95166553     2.71138468    -0.18177779
O       2.25068920     0.90253117    -0.44460699
H       1.28223807    -0.72659334     1.49140317
H      -0.67924062     0.31588125    -0.55982111
H      -0.55145995     0.90759129     1.17877691
H       3.01341502     1.55082273    -0.71129571
   34
assoc23.out B3LYP-D3/def2-TZVP interaction energy (in kJ/mol) = -83.75
N       4.44742482    -1.62080060     2.40805090
C       4.48887277    -0.15162705     2.17968057
C       5.04837627     0.16668711     0.79918894
O       4.85432247     1.23903574     0.23761945
H       3.62395572    -2.02818633     1.92439627
H       4.39796720    -1.81538132     3.41546021
H       3.47492764     0.35079777     2.26056683
H       5.17616015     0.32784493     2.92954778
N       5.85373218    -0.80025291     0.19486335
C       6.39696043    -0.58715368    -1.14802683
C       5.63991169    -1.41166924    -2.17138376
O       4.53465823    -1.90731839    -2.12528959
O       6.41086678    -1.57497260    -3.28867554
H       5.98855668    -1.71684415     0.63128080
H       6.28588548     0.50831726    -1.43171194
H       7.48751180    -0.86559877    -1.17595080
H       5.95255133    -2.09723562    -4.00693415
N       2.70311241     3.11750895    -0.75220438
C       2.12855997     3.22700508     0.61848927
C       1.57281768     1.87170069     1.04573909
O       1.73535490     1.42447859     2.17363238
H       3.47874588     2.42659182    -0.74328442
H       3.05043447     4.03587745    -1.05324378
H       2.87653071     3.53567209     1.39920745
H       1.28409342     3.96741869     0.59641895
N       0.80378234     1.18126145     0.10016295
C       0.44638248    -0.22076266     0.36603856
C       1.62010467    -1.16384028     0.13149891
O       1.93495841    -2.12229065     0.80232418
O       2.33783047    -0.78889747    -0.95475433
H       0.87574977     1.45281546    -0.88795379
H       0.13980387    -0.32381159     1.45107520
H      -0.40457502    -0.52287848    -0.30139755
H       3.20344421    -1.31569114    -1.08900295
   34
assoc88.out B3LYP-D3/def2-TZVP interaction energy (in kJ/mol) = -83.75
N       4.92561634     2.94247364    -0.27383292
C       4.87121926     2.32720476     1.08424017
C       4.98466953     0.80551085     1.10690234
O       5.30940652     0.22851358     2.13958509
H       5.66247051     2.49406829    -0.84201486
H       5.12549711     3.95009007    -0.17914210
H       5.67234680     2.71133729     1.77505196
H       3.86214695     2.58210240     1.52628716
N       4.60590192     0.08192460    -0.01466632
C       4.88133243    -1.36046168    -0.09166038
C       6.08105103    -1.68145647    -0.95532999
O       6.58271614    -2.75506805    -1.17564941
O       6.60610460    -0.54525792    -1.53533061
H       4.38690371     0.53271596    -0.91271131
H       5.07032782    -1.77542818     0.94401741
H       3.96976719    -1.88214177    -0.53611678
H       7.37916564    -0.74757570    -2.12858244
N       2.24549721    -0.24456812     2.83388881
C       1.65674258    -1.45080029     2.19153312
C       1.51922495    -1.19905057     0.68894203
O       1.90524167    -2.00549033    -0.14398310
H       3.24308346    -0.16912211     2.57495354
H       2.14679984    -0.30686865     3.85495489
H       2.27509092    -2.38128538     2.31612442
H       0.63197089    -1.63457168     2.61376532
N       0.84952652    -0.02905573     0.31816915
C       0.78537576     0.35776256    -1.10070121
C       2.00817578     1.18017754    -1.48213931
O       2.87410885     0.90666426    -2.28352896
O       2.07557023     2.32633843    -0.75103019
H       0.72731047     0.72343385     1.00295152
H       0.77826526    -0.57552829    -1.74235631
H      -0.14595126     0.95862711    -1.28049024
H       2.98092349     2.79881015    -0.85240925
   34
assoc45.out B3LYP-D3/def2-TZVP interaction energy (in kJ/mol) = -77.14
N       4.38936054     1.61523722    -0.55417006
C       5.82935326     1.92004740    -0.79728308
C       6.66575567     0.81902713    -0.14377262
O       7.58226498     0.25583004    -0.70355718
H       4.15970517     0.67410196    -0.91125055
H       3.79605764     2.32831470    -1.00641287
H       6.11027788     1.95947004    -1.88360993
H       6.06787430     2.90737460    -0.31951291
N       6.30527925     0.49961602     1.19301439
C       6.44395957    -0.90832604     1.60946200
C       5.14572011    -1.63346798     1.25966888
O       4.29243369    -2.03097132     2.02818567
O       4.99258190    -1.72679304    -0.07880080
H       5.48194029     0.97573893     1.58181256
H       7.31123915    -1.38245221     1.06184729
H       6.61254682    -0.95741171     2.71751463
H       4.03922605    -1.96426740    -0.38611590
N       1.41634378    -1.28353951     2.21317730
C       1.36941592    -2.14017761     0.99658708
C       1.57864126    -1.21674524    -0.20156667
O       2.53691666    -1.32072684    -0.96917632
H       2.41103006    -1.10768854     2.44928155
H       0.95051940    -1.76086550     2.99538600
H       2.17880986    -2.92429173     0.97483817
H       0.37127042    -2.64329367     0.90979070
N       0.57169585    -0.29294532    -0.45673282
C       0.71906744     0.66979699    -1.55949591
C       1.01689004     2.07500752    -1.06749164
O       1.80238491     2.87472035    -1.51663065
O       0.22130796     2.39453705    -0.00082395
H      -0.09835381    -0.04384264     0.27858062
H       1.56851137     0.34199162    -2.23697708
H      -0.24025276     0.69774322    -2.15087792
H       0.41340984     3.30003551     0.37288648
   34
assoc15.out B3LYP-D3/def2-TZVP interaction energy (in kJ/mol) = -76.65
N       5.55417720    -2.80335150     0.63331900
C       6.60042255    -2.18932208     1.50325903
C       6.62088859    -0.68309404     1.25908210
O       6.51941798     0.12943342     2.16550046
H       4.71135896    -2.20592340     0.62065156